# vtk DataFile Version 3.0
3D Velocity Field
ASCII
DATASET STRUCTURED_POINTS
DIMENSIONS 23 23 23
ORIGIN -9.1667 -9.1667 -9.1667
SPACING 0.833333 0.833333 0.833333
POINT_DATA 12167
VECTORS velocity float
0.000000 0.000000 0.000000
0.000000 0.000000 0.000000
0.000000 0.000000 0.000000
0.000000 0.000000 0.000000
0.000000 0.000000 0.000000
0.000000 0.000000 0.000000
0.000000 0.000000 0.000000
0.000000 0.000000 0.000000
0.000000 0.000000 0.000000
0.000000 0.000000 0.000000
0.000000 0.000000 0.000000
0.000000 0.000000 0.000000
0.000000 0.000000 0.000000
0.000000 0.000000 0.000000
0.000000 0.000000 0.000000
-0.000021 0.000000 -0.004069
-0.000021 0.000009 -13.031817
-0.000000 0.000053 -201.444616
0.000000 0.000000 -201.444616
0.000000 -0.000000 -170.549534
0.000000 -0.000000 -163.928814
0.000000 -0.000000 -13.062469
-833.333333 -833.333333 -416.666667
0.000000 0.000000 0.000000
0.000000 0.000000 0.000000
0.000000 0.000000 0.000000
0.000000 0.000000 0.000000
0.000000 0.000000 0.000000
0.000000 0.000000 0.000000
0.000000 0.000000 0.000000
0.000000 0.000000 0.000000
0.000000 0.000000 0.000000
0.000000 0.000000 0.000000
0.000000 0.000000 0.000000
0.000000 0.000000 0.000000
0.000000 0.000000 0.000000
0.000000 0.000000 0.000000
0.000000 0.000000 0.000000
0.000000 0.000001 -0.004069
0.000099 0.000379 -12.847797
0.007373 0.001215 -154.632401
0.064349 0.001241 -170.549534
0.283476 0.010502 -154.534516
1.469550 0.228390 -13.062469
1.469550 0.226338 6.152949
0.214391 0.124814 0.217964
0.000000 0.000000 0.000000
0.000000 0.000000 0.000000
0.000000 0.000000 0.000000
0.000000 0.000000 0.000000
0.000000 0.000000 0.000000
0.000000 0.000000 0.000000
0.000000 0.000000 0.000000
0.000000 0.000000 0.000000
0.000000 0.000000 0.000000
0.000000 0.000000 0.000000
0.000000 0.000000 0.000000
0.000000 0.000000 0.000000
0.000000 0.000000 0.000000
0.000000 0.000000 0.000000
0.000000 0.000000 -0.000000
0.000002 0.000107 -0.001941
0.002126 0.031474 -10.759522
0.124644 0.898343 -45.029850
0.465188 2.515450 -135.470600
1.235347 8.693179 -45.029850
1.567206 8.942125 -1.879754
1.567206 0.251114 6.152949
0.348919 0.238544 0.217964
0.000000 0.000000 0.000000
0.000000 0.000000 0.000000
0.000000 0.000000 0.000000
0.000000 0.000000 0.000000
0.000000 0.000000 0.000000
0.000000 0.000000 0.000000
0.000000 0.000000 0.000000
0.000000 0.000000 0.000000
0.000000 0.000000 0.000000
0.000000 0.000000 0.000000
0.000000 0.000000 0.000000
0.000000 0.000000 0.000000
0.000000 0.000000 0.000000
0.000000 0.000000 0.000000
0.000000 0.000000 0.000000
0.000099 0.031474 -0.000723
0.046077 0.898343 -3.765108
0.320792 6.388390 -11.155376
1.166832 8.693179 -42.398856
1.235347 8.942125 -4.660891
1.179547 11.210250 -2.271784
0.214391 10.421633 -0.004923
0.001101 0.244387 -0.004923
0.000000 0.000000 0.000000
0.000000 0.000000 0.000000
0.000000 0.000000 0.000000
0.000000 0.000000 0.000000
0.000000 0.000000 0.000000
0.000000 0.000000 0.000000
0.000000 0.000000 0.000000
0.000000 0.000000 0.000000
0.000000 0.000000 0.000000
0.000000 0.000000 0.000000
0.000000 0.000000 0.000000
0.000000 0.000000 0.000000
0.000000 0.000000 0.000000
0.000000 0.000000 0.000000
0.000000 0.000000 0.000000
0.000059 0.031474 0.000000
0.087438 6.388390 0.000682
0.700704 36.249175 3.160278
1.179547 86.081839 -4.660891
1.182229 91.770576 -4.660891
1.166832 72.529464 -12.125360
-0.010713 10.421633 -2.271784
-0.012501 0.244387 -0.014702
0.000000 0.000000 0.000000
0.000000 0.000000 0.000000
0.000000 0.000000 0.000000
0.000000 0.000000 0.000000
0.000000 0.000000 0.000000
0.000000 0.000000 0.000000
0.000000 0.000000 0.000000
0.000000 0.000000 0.000000
0.000000 0.000000 0.000000
0.000000 0.000000 0.000000
0.000000 0.000000 0.000000
0.000000 0.000000 0.000000
0.000000 0.000000 0.000000
0.000000 0.000000 0.000000
0.000000 0.000000 0.000000
0.000000 0.031175 0.004202
0.043107 4.956810 0.007255
0.304616 9.585252 6.784270
0.825189 12.777309 4.666962
1.036541 -36.405463 4.666962
-0.137334 -12.195274 -19.745840
-0.137334 0.074629 -14.568269
-0.019245 0.074629 -0.017589
0.000000 0.000000 0.000000
0.000000 0.000000 0.000000
0.000000 0.000000 0.000000
0.000000 0.000000 0.000000
0.000000 0.000000 0.000000
0.000000 0.000000 0.000000
0.000000 0.000000 0.000000
0.000000 0.000000 0.000000
0.000000 0.000000 0.000000
0.000000 0.000000 0.000000
0.000000 0.000000 0.000000
0.000000 0.000000 0.000000
0.000000 0.000000 0.000000
0.000000 0.000000 0.000000
0.000000 0.000000 0.000000
0.000000 0.000524 0.007255
-0.004402 0.031175 0.301453
0.087438 1.327326 4.666962
0.304616 -24.314135 -12.125360
0.304616 -32.309952 -41.203315
-0.644669 -12.053827 -28.368091
-0.413162 -0.098419 -9.535869
-0.019245 -0.032945 -0.014702
0.000000 0.000000 0.000000
0.000000 0.000000 0.000000
0.000000 0.000000 0.000000
0.000000 0.000000 0.000000
0.000000 0.000000 0.000000
0.000000 0.000000 0.000000
0.000000 0.000000 0.000000
0.000000 -0.000705 0.000000
0.000000 0.000000 0.000000
0.000000 0.000000 0.000000
0.000000 0.000000 0.000000
0.000000 0.000000 0.000000
0.000000 0.000000 0.000000
0.000000 0.000000 0.000000
0.000000 0.000000 0.000000
-0.000242 0.000000 0.021161
-0.013908 -0.041238 0.099011
-0.239187 -1.261549 -0.048301
-0.239187 -24.314135 -0.526117
-0.030969 -32.309952 -11.134268
-0.413162 -12.053827 -11.134268
-0.024455 -0.098419 -0.279699
-0.011628 -0.032945 -0.006778
0.000000 0.000000 0.000000
0.000000 0.000000 0.000000
0.000000 0.000000 0.000000
0.000000 0.000000 0.000000
0.000000 0.000000 0.000000
0.000000 0.000000 0.000000
0.000000 -0.000004 -0.000024
0.000000 -0.000004 -0.016407
0.001113 0.000000 -0.003452
0.000035 0.000000 0.000000
0.000001 0.000544 0.000108
0.000000 0.000267 0.000108
0.000000 0.000000 0.000000
0.000000 -0.002208 0.000274
0.000000 -0.004931 0.018286
0.000001 -0.005939 0.018286
-0.000376 -0.041238 0.015363
-0.028107 -0.040404 -0.281130
-0.030969 -0.040404 -0.281130
-0.016575 -0.031606 -0.279699
-0.013521 -0.021794 -0.081666
-0.003230 -0.016710 -0.000003
-0.000119 -0.006131 0.000000
0.000000 0.000000 0.000000
0.000000 0.000000 0.000000
0.000000 0.000000 0.000000
0.000000 0.000000 0.000000
0.000000 0.000000 0.000000
0.000000 0.000000 0.000000
0.000254 0.000000 -0.002297
0.002260 -0.000004 -0.019295
0.008220 -0.027284 -0.019199
0.002260 -0.030694 6.026483
0.000144 -0.253031 6.546300
0.000024 -0.002208 6.026483
0.000023 -0.100032 1.466082
0.000005 -0.345171 0.491035
0.000005 -0.345171 0.233897
0.000065 -0.015517 0.018286
0.000283 0.079420 -0.014177
0.000074 0.079420 -0.279134
0.000000 0.000002 -0.081666
0.000000 -0.007632 0.000000
-0.000000 -0.004550 0.000000
0.000000 -0.000093 0.000000
0.000000 -0.000093 0.000000
0.000000 0.000000 0.000000
0.000000 0.000000 0.000000
0.000000 0.000000 0.000000
0.000000 0.000000 0.000000
0.000001 0.000000 0.000001
0.000262 0.000250 0.002643
0.010747 0.000601 0.003977
0.047349 0.000601 0.012116
0.078459 0.000427 9.440021
0.004123 -3.514195 54.143343
0.000359 -2.792445 55.013163
0.000046 -1.929489 12.284259
0.000024 -1.929489 6.546300
0.000024 -2.079775 1.466082
0.000002 -0.829647 2.812750
0.000087 0.079420 -77.037748
0.002077 1.134402 -11.985616
0.002077 0.552529 -7.378803
0.000147 0.003625 0.014032
0.000000 0.000000 0.000000
0.000000 0.000000 0.000000
0.000000 0.000000 0.000000
0.000000 0.000000 0.000000
0.000000 0.000000 0.000000
0.000000 0.000000 0.000000
0.000000 0.000000 0.000000
0.000001 0.000000 0.000000
0.005861 0.000250 0.002910
0.023887 0.500099 0.449676
0.048861 1.742775 0.778817
0.023887 1.742775 0.778817
0.010747 0.134223 18.264940
-0.065976 -3.514195 66.725510
0.000144 -3.514195 66.725510
0.000144 -2.588672 55.013163
0.000081 -2.602954 12.284259
0.000024 -5.733536 2.587816
0.000002 -17.829161 0.422062
0.000132 0.079420 -77.037748
0.000437 1.270152 -13.155667
0.002550 0.537644 -7.378803
0.000263 0.003069 0.027009
0.000074 0.000000 0.000000
0.000000 0.000000 0.000000
0.000000 0.000000 0.000000
0.000000 0.000000 0.000000
0.000000 0.000000 0.000000
0.000000 0.000000 0.000000
0.000000 0.000000 0.000000
0.000161 0.000000 0.000000
0.029965 0.161869 0.449676
0.047349 1.863929 3.563844
0.047349 4.846494 4.565818
-0.680123 5.928690 1.223742
-8.445162 11.691564 0.778817
-9.069697 1.324810 66.725510
-0.065976 -2.078132 68.495729
0.000081 -2.078132 66.725510
0.001293 -2.712167 15.036407
0.000026 -17.992053 2.587816
0.000008 -28.601616 -49.534456
0.000132 -17.418203 -63.156708
0.001931 1.709705 -49.657122
0.001931 1.609839 -8.379663
0.000147 0.003069 0.027009
0.000000 -0.000000 0.000001
0.000000 -0.000000 0.000000
0.000000 0.000000 0.000000
0.000000 0.000000 0.000000
0.000000 0.000000 0.000000
0.000000 0.000000 0.000000
0.000000 0.000000 0.000000
0.000275 0.000000 0.000240
0.029965 0.057474 0.799998
0.031586 1.863929 5.818120
0.019004 5.928690 5.818120
-0.878251 5.928690 0.762523
-11.646438 9.814569 -13.338766
-12.340401 -33.482094 -6.407037
-10.069100 -0.351003 36.701482
0.000081 -0.351003 25.154405
0.001380 -1.241260 15.036407
0.001293 -2.296748 2.587816
0.000132 -17.992053 -22.796594
0.000132 -0.782779 -49.657122
0.000132 0.049607 -22.796594
0.000111 0.049607 -8.379663
0.000000 -0.000001 0.028129
-0.000000 -0.000018 0.000036
-0.000000 -0.000001 0.000000
0.000000 0.000000 0.000000
0.000000 0.000000 0.000000
0.000000 0.000000 0.000000
0.000000 0.000000 0.000000
0.000000 0.000000 0.000000
0.000275 0.000001 0.000240
0.029965 -0.001044 0.799998
0.033206 0.046373 5.531771
0.019004 1.863929 5.531771
-0.878251 1.863929 -8.949309
-12.340401 11.691564 -13.338766
-12.554704 33.600156 -7.308143
-12.552393 33.600156 -2.286120
-10.227938 0.023112 18.335380
0.001380 -1.234060 3.808440
0.001380 -1.823753 -0.174501
0.001380 -8.865958 -14.138352
0.000074 -0.693583 -49.534456
0.000074 0.049607 -11.296722
0.000069 0.000045 -8.379663
0.000069 -0.183869 0.031587
-0.000000 -0.000799 0.000036
-0.000000 -0.000000 0.000000
0.000000 0.000000 0.000000
0.000000 0.000000 0.000000
0.000000 0.000000 0.000000
0.000000 0.000000 0.000000
0.000000 0.000004 0.000000
0.000243 0.000016 0.000429
0.014233 0.003149 0.787127
0.033206 0.007716 3.447793
0.026173 0.240887 3.563124
-0.878251 7.432065 -6.546297
-12.043014 31.596637 -12.857637
-12.554704 168.057277 -2.286120
-12.554704 166.240381 -1.584072
-12.554704 0.023112 -0.025916
-5.016434 -1.234060 0.032253
0.001175 -1.241260 -1.343583
0.000026 -0.602055 -11.352531
-0.015558 -0.058608 -22.796594
-0.003395 -0.058608 -10.467934
-0.000922 -0.194568 -7.239746
0.125882 -0.194568 -5.955720
0.000589 -0.000015 -0.196688
-0.000000 0.000695 -0.033963
0.000000 0.000000 0.000000
0.000000 0.000000 0.000000
0.000000 0.000000 0.000000
0.000000 0.000000 0.000000
0.000000 0.000000 0.000000
0.000010 0.000087 0.000202
0.000202 0.002518 0.004226
0.033206 0.002739 1.009665
0.033206 0.010629 0.004226
0.063119 0.749541 -4.628997
-2.395800 31.596637 -6.546297
-12.043014 168.057277 -0.121949
-12.089997 166.240381 -0.025916
-9.843153 -0.328249 0.717394
-4.013470 -5.311801 13.055269
-0.394071 -7.040361 -1.343583
-0.221045 -3.197648 -1.343583
-0.216900 -0.026907 -168.399259
-0.065796 0.004877 -0.861877
0.158337 1.057018 -0.861877
2.493880 -0.144881 -4.742766
0.396828 0.109807 -10.903579
0.000000 0.001567 -4.742766
0.000000 0.000036 -0.029025
0.000000 0.000000 0.000000
0.000000 0.000000 0.000000
0.000000 0.000000 0.000000
0.000000 0.000000 0.000000
-0.000000 0.000002 -0.000000
-0.000101 0.002518 -0.000143
-0.000101 0.002739 -0.001033
-0.000203 -0.002609 -0.037612
0.000255 -0.192573 -0.825511
-0.004116 -0.195598 -0.391387
-0.013053 -0.451676 -0.108532
-0.015467 -0.328249 -0.042184
-2.342790 -0.777177 0.717394
-0.394071 -2.611366 36.326094
-1.454448 -5.697038 13.055269
-0.221045 -5.338601 37.953592
-0.163433 -0.058608 -127.440704
-0.005940 -0.058608 24.978444
0.179861 1.935586 -0.861877
1.281448 1.663999 0.032668
0.643492 0.092186 -5.353088
0.085303 0.000000 -5.030355
0.000000 0.000000 -0.033458
0.000000 0.000000 0.000000
0.000000 0.000000 0.000000
0.000000 0.000000 0.000000
0.000000 -0.000003 0.000000
-0.000000 -0.000133 -0.000000
-0.000101 -0.000756 -0.000143
0.000005 -0.001000 -0.011757
0.000016 -0.175464 -0.037612
0.000576 -0.195598 -0.521607
0.000016 -0.544472 -0.121949
-0.000599 -0.475943 -0.391387
-0.000599 -0.451676 -0.391387
-0.042748 -0.451676 0.315947
-0.611367 -0.328249 37.953592
-0.703189 -5.338601 37.953592
-0.394071 -6.725848 47.221438
-0.163433 -5.338601 -42.866057
0.076836 -6.725848 24.978444
0.379012 1.935586 15.190715
1.281448 -3.369154 15.190715
0.738095 -3.369154 -3.917181
0.298172 -0.615431 -3.917181
0.000000 0.000000 -0.033458
0.000000 0.000000 0.000000
0.000000 0.000000 0.000000
0.000000 0.000000 0.000000
0.000000 -0.000000 0.000000
0.000000 -0.000003 0.000001
0.000000 -0.000198 0.000009
0.000005 -0.000260 -0.001033
0.000014 -0.011725 -0.011757
0.000007 -0.011725 -0.011757
0.000000 -0.192573 -0.028388
-0.001790 -0.392952 -0.108532
-0.004521 -0.451676 -1.775641
-0.042748 2.036034 -1.187102
-0.651056 12.537831 9.301782
-0.792283 3.097853 6.097701
-0.703189 -3.166627 11.611199
-0.163433 -2.655136 -13.607491
0.163781 -3.970464 19.215872
0.364810 -3.970464 15.190715
0.724521 -9.736668 8.792901
0.643492 -7.955673 -0.003155
0.328595 -4.041116 -0.033788
0.000002 -0.000038 -0.033458
0.000000 0.000000 0.000000
0.000000 0.000000 0.000000
0.000000 0.000000 0.000000
0.000000 0.000000 0.000000
0.000000 -0.000000 0.000001
0.000000 -0.000000 0.000009
0.000003 -0.000007 0.000000
0.000003 -0.000008 -0.000080
0.000016 -0.000079 -0.000564
0.000007 -0.001328 -0.002196
0.000006 -0.001328 -0.002196
-0.001790 -0.475943 -3.868550
-0.064204 56.235924 2.655002
-0.651056 63.662552 3.788664
-0.792283 59.472230 2.655002
-1.224060 11.523501 -5.813522
-0.399774 2.482164 -0.094874
0.030030 0.011941 11.722008
0.346579 -0.364133 8.792901
0.379012 -4.004881 6.706326
0.402669 -4.004881 -0.003155
0.298172 -0.355365 -0.033788
0.000003 -0.000037 -0.033214
0.000000 0.000000 0.000000
0.000000 0.000000 0.000000
0.000000 0.000000 0.000000
0.000000 0.000000 0.000000
0.000000 0.000000 0.000000
0.000000 0.000000 0.000000
0.000000 0.000000 0.000000
0.000000 0.000000 0.000000
0.000003 -0.000007 -0.000080
0.000000 -0.000079 -0.000564
-0.064204 -0.000079 0.769107
-0.240877 0.006046 -3.868550
-0.240877 4.983994 9.301782
-0.651056 59.472230 -86.304162
-0.651056 57.802640 -5.813522
-1.224060 10.565295 -13.607491
-0.542285 2.482164 0.029538
-0.011229 -0.000003 1.258842
0.078406 -0.000081 2.744868
0.165189 -0.165188 0.138645
0.221766 -0.179219 0.000469
0.165189 -0.000239 -0.029700
0.000037 -0.000014 -0.010587
0.000000 0.000000 0.000000
0.000000 0.000000 0.000000
0.000000 0.000000 0.000000
0.000000 0.000000 0.000000
0.000000 0.000000 0.000000
0.000000 0.000000 0.000000
0.000000 0.000000 0.000000
0.000000 0.000000 0.000000
0.000000 0.000000 -0.000564
0.000000 -0.000196 -0.000795
-0.240877 -0.000079 12.531086
-0.251069 0.167340 12.531086
-0.240877 0.929569 121.703696
-0.216693 1.004036 -147.856478
-0.216693 8.244326 -70.603829
-0.542285 5.212163 -70.603829
-0.079163 0.055300 0.029538
-0.007191 -0.000031 0.133433
0.001718 -0.000031 0.133433
0.078406 -0.000081 0.055578
0.081566 -0.000081 0.000469
0.003962 -0.000068 -0.002674
0.000768 -0.000014 -0.002674
0.000000 0.000000 0.000000
0.000000 0.000000 0.000000
0.000000 0.000000 0.000000
0.000000 0.000000 0.000000
0.000000 0.000000 0.000000
0.000000 0.000000 0.000000
0.000000 0.000000 0.000000
0.000000 0.000000 0.000000
0.000000 0.000000 0.000000
0.000000 0.000000 0.000000
0.000000 0.000000 0.000000
0.000000 0.000000 0.000000
0.000000 0.000000 0.000000
0.000000 0.000000 0.000000
0.000000 0.000000 0.000000
0.000000 0.000000 0.000000
-0.000021 0.000000 -0.000009
-0.000447 0.000032 -0.422071
-0.013137 0.000379 -97.318226
0.000000 0.000684 -173.308172
0.007373 0.000077 -164.177211
0.000000 -0.000000 -163.928814
0.000000 -0.000000 -13.062469
-833.333333 -833.333333 -416.666667
0.000000 0.000000 -0.000001
0.000000 0.000000 0.000000
0.000000 0.000000 0.000000
0.000000 0.000000 0.000000
0.000000 0.000000 0.000000
0.000000 0.000000 0.000000
0.000000 0.000000 0.000000
0.000000 0.000000 0.000000
0.000000 0.000000 0.000000
0.000000 0.000000 0.000000
0.000000 0.000000 0.000000
0.000000 0.000000 0.000000
0.000000 0.000000 0.000000
0.000000 0.000000 0.000000
-0.000000 0.000000 -0.000001
-0.000003 0.000001 -0.003861
-0.000021 0.000525 -9.923292
0.000249 0.003739 -128.462382
0.093656 0.010502 -163.928814
1.012148 0.013837 -135.259979
3.971678 0.226338 -12.915200
1.469550 0.124814 1.293423
0.214391 0.027387 0.217964
-0.000001 -0.000002 -0.000054
-0.000002 -0.000024 -0.000065
-0.000002 -0.000160 -0.000023
-0.000002 -0.000165 0.000000
0.000000 -0.000002 0.000000
0.000000 0.000000 0.000000
0.000000 0.000000 0.000000
0.000000 0.000000 0.000000
0.000000 0.000000 0.000000
0.000000 0.000000 0.000000
0.000000 0.000000 0.000000
0.000000 0.000000 0.000000
0.000000 0.000000 0.000000
0.000000 0.000000 0.000000
-0.000000 0.000000 -0.000235
-0.000003 0.000562 -0.003861
0.000228 0.105853 -4.082585
0.093656 1.076858 -42.398856
0.700704 2.943401 -121.154676
1.567206 8.693179 -43.918231
5.082595 8.221118 -2.271784
1.567206 0.251114 1.293423
0.478638 0.124814 0.217964
-0.000234 -0.002657 -0.000229
-0.000234 -0.003131 -0.006444
-0.000962 -0.014804 -0.006444
-0.000962 -0.017770 0.000000
-0.000382 -0.008360 0.000000
-0.000023 0.000000 0.000428
-0.000000 0.000000 0.000000
-0.000003 0.000000 0.000000
-0.000000 0.000000 0.000000
0.000000 0.000000 0.000000
0.000000 0.000000 0.000000
0.000000 0.000000 0.000000
0.000000 0.000000 0.000000
0.000000 0.000000 0.000000
-0.000010 0.000000 -0.000584
-0.000312 0.039749 -0.001252
0.001738 1.076858 -0.787523
0.664453 4.303960 -9.923292
5.248030 8.942125 -42.398856
7.440223 11.210250 -23.757019
1.179547 10.748528 -8.981164
0.348919 5.470795 -0.004436
0.209334 0.244387 -0.003901
-0.000438 0.000000 -0.000429
-0.000962 0.000000 -0.013704
-0.001583 -0.001374 -0.011959
-0.002303 -0.017770 0.000000
-0.001719 -0.032338 0.029572
-0.000192 -0.000139 0.103572
-0.000023 0.000000 0.099998
-0.000023 0.000000 0.003031
-0.000000 0.000000 0.000000
0.000000 0.000000 0.000000
0.000000 0.000000 0.000000
0.000000 0.000000 0.000000
0.000000 0.000000 0.000000
0.000000 0.000000 0.000000
-0.000114 0.000000 -0.000012
-0.000626 0.066444 0.000000
0.000105 5.462661 0.004202
0.513850 25.750965 2.767352
1.166832 56.038134 -4.660891
1.179547 69.873217 -8.981164
-0.137334 49.651224 -12.125360
-0.011875 5.470795 -2.271784
-0.010713 0.244387 -0.004923
-0.000438 0.000000 -0.000429
-0.001019 0.000000 -0.013704
-0.001583 0.000000 -0.013447
-0.002303 0.000000 0.000000
-0.000549 -0.075672 0.077015
-0.000192 -0.012897 0.227147
0.000000 0.000000 0.141144
0.000000 0.000000 0.055099
0.000000 0.000000 0.000000
0.000000 0.000000 0.000000
0.000000 0.000000 0.000000
0.000000 0.000000 0.000000
0.000000 0.000000 0.000000
0.000000 0.000000 0.000000
-0.000411 0.000105 0.000000
-0.000626 0.369114 0.000663
-0.005696 4.303960 0.005310
0.087438 6.269426 3.961978
0.513850 25.750965 3.961978
0.770401 11.774239 3.961978
-1.423087 10.421633 -14.568269
-0.413162 0.236337 -1.006002
-0.012745 0.074629 -0.004436
0.000000 0.025837 0.000000
0.000000 0.025837 -0.000163
-0.001572 0.000000 -0.013447
-0.002303 0.000000 0.000000
-0.000549 -0.055244 0.000000
-0.000047 -0.012897 0.141144
0.000000 -0.009708 0.112517
0.000000 -0.001693 0.002042
0.000000 0.000000 0.000000
0.000000 0.000000 0.000000
0.000000 0.000000 0.000000
0.000000 0.000000 0.000000
0.000000 0.000000 0.000000
0.000000 0.000000 -0.000001
-0.000411 0.000000 0.000000
-0.003451 0.167347 0.000000
-0.012927 1.327326 0.007393
-1.921832 3.631892 2.872809
-3.845386 4.438624 -4.077886
-2.081124 -3.761702 -11.134268
-1.513586 -4.519986 -11.134268
-0.542424 -2.520006 -0.028484
-0.012501 -0.098419 -0.004394
0.000000 0.025837 0.000000
0.000000 0.025837 0.000000
-0.001572 0.003153 0.000000
-0.001087 0.000000 0.000000
-0.000289 0.000000 0.000000
-0.000021 -0.012897 0.001634
-0.000001 -0.029211 0.000000
-0.000009 -0.014701 0.000000
0.000000 -0.003380 -0.002804
0.000000 0.000000 -0.001025
0.000000 0.000544 -0.000024
0.000000 0.000176 -0.000009
0.000000 0.000000 -0.000001
0.000000 0.000000 -0.000001
0.000000 0.000000 0.000000
-0.000242 0.001726 0.005651
-0.012927 -0.004931 0.007393
-0.239187 -0.040935 -0.014177
-1.427500 -3.002884 -0.281130
-1.423087 -3.991959 -0.276548
-0.627641 -3.845330 -0.279699
-0.394374 -2.764777 -0.004394
-0.003456 -0.098419 0.000995
0.000000 0.000334 0.000000
0.000000 0.000334 0.000000
-0.000001 0.000001 0.000000
-0.000078 0.000001 0.000000
-0.000013 0.000000 0.000000
-0.000013 -0.000026 0.000000
-0.000010 -0.010670 -0.002297
-0.000009 -0.018682 -0.056168
0.001113 -0.009818 -0.021495
0.000858 0.000000 -0.003452
0.000046 0.000687 0.000000
0.000023 0.000544 0.000000
0.000014 0.000000 0.000000
0.000014 -0.000000 0.000000
0.000000 -0.004361 0.005651
0.000000 0.000000 0.007393
-0.000242 -0.004931 0.007393
-0.014200 -0.026895 -0.276548
-0.035436 -0.040404 -0.216120
-0.627641 -0.039291 -0.081666
-0.500932 -0.031606 0.002148
-0.011628 -0.025841 0.001717
-0.000130 -0.016710 0.001717
0.000000 0.000000 0.000000
0.000000 0.000000 0.000000
0.000000 0.000000 0.000000
-0.000000 0.000001 0.000001
0.000000 0.000000 0.000001
0.000000 0.000000 0.000000
0.000262 -0.000705 -0.002473
0.008220 -0.009608 -0.141005
0.084365 -0.030694 -0.010939
0.593803 -0.347308 5.329341
0.006575 -0.842313 6.026483
0.000359 -0.100032 1.466082
0.000045 -0.370880 0.415906
0.000045 -0.345171 0.062300
0.000005 -0.041238 0.032413
0.000065 0.002438 0.015363
0.000283 0.148571 0.021161
0.000074 0.148571 -0.048301
0.000000 -0.007632 0.014032
-0.000138 -0.021148 0.000670
-0.000138 -0.021148 0.002148
0.000000 -0.016679 0.000095
0.000000 -0.006131 0.000220
0.000000 0.000000 0.000000
0.000000 0.000000 0.000000
0.000000 0.000000 0.000000
0.000000 0.000000 0.000001
0.000018 0.000015 0.000009
0.001004 0.000133 0.000423
0.047349 0.000601 0.011795
0.222307 0.134223 0.637285
1.042065 -0.027284 5.611160
1.042065 -2.551529 15.925003
0.754535 -2.712167 27.418222
0.104566 -1.334954 8.831184
0.004220 -1.924150 3.021548
0.000681 -2.079775 0.491035
0.000002 -0.751430 0.422062
0.000087 0.148571 -63.773156
0.004000 1.270152 0.184861
0.186023 0.756846 -1.264459
0.004000 0.003625 0.026939
0.000074 -0.007632 0.000141
0.000000 -0.014961 0.000141
0.000000 -0.006131 0.000000
0.000000 -0.006131 0.000000
0.000000 0.000000 0.000000
0.000000 0.000000 0.000000
0.000000 0.000000 0.000000
0.000001 0.000000 0.000001
0.005861 0.032089 0.011795
0.023887 0.821857 0.860705
0.056186 3.123128 0.860705
0.168114 3.003245 1.223742
0.766341 0.134223 5.329341
0.754535 -3.859771 47.035589
0.494374 -2.792445 54.143343
0.336309 -2.201775 15.036407
0.057995 -2.712167 9.811789
0.004704 -5.733536 0.422062
0.000005 -17.715807 -10.651653
0.000437 0.079420 -72.243633
0.338519 1.134402 -12.632095
0.498617 0.148571 -2.772487
0.186023 0.000002 0.028129
0.000580 -0.024679 0.000000
0.000263 -0.027562 0.000000
0.000239 -0.028666 0.000000
0.000239 -0.028766 0.000000
0.000000 0.000000 0.000000
0.000000 0.000000 0.000000
0.000000 0.000000 0.000000
0.000275 0.000000 0.000314
0.018014 0.332412 0.799998
0.042297 3.123128 4.565818
0.029965 7.262286 4.967698
-1.654000 7.262286 4.967698
-4.642254 5.770669 7.322950
-1.525455 -6.017146 36.701482
0.378022 -2.588672 50.653053
0.105648 -2.078132 25.154405
0.094779 -4.856767 11.078000
0.007392 -18.057089 0.422062
0.004890 -28.601616 -49.771450
0.007392 -17.418203 -63.156708
0.338519 1.694345 -49.391381
0.427566 0.747322 -2.772487
0.058523 0.000000 0.028129
0.000147 -0.004000 0.000028
0.000116 -0.003967 0.000000
0.000235 -0.000239 0.000000
0.000238 -0.000239 0.000000
0.000000 0.000000 0.000000
0.000000 0.000000 0.000000
0.000000 0.000000 0.000000
0.006057 0.000000 0.000597
0.009887 0.161869 2.512584
0.019004 4.846494 6.276370
-1.254327 9.814569 14.065151
-4.642254 9.814569 5.040316
-11.646438 -10.372234 -8.949309
-10.069100 -57.804764 -1.476188
-0.138197 -2.588672 23.886297
0.014274 -0.558754 19.855964
0.028245 -1.241260 7.601385
0.008332 -2.296748 -0.174501
0.028245 -18.057089 -21.214373
0.072264 -5.633830 -49.771450
0.079630 -0.548401 -21.214373
0.001931 0.000045 -5.955720
0.000069 -0.018194 0.028129
-0.000000 -0.004000 0.000028
0.000000 -0.000521 0.000000
0.000000 -0.000001 0.000000
0.000000 0.000000 0.000000
0.000000 0.000000 0.000000
0.000000 0.000000 0.000000
0.000000 0.000000 0.000000
0.004584 -0.001044 0.000262
0.014233 -0.001044 2.707278
0.029965 0.161869 6.276370
-0.878251 7.534426 8.418436
-11.646438 9.042771 4.618393
-12.340401 11.691564 -13.338766
-12.554704 -57.804764 -6.407037
-12.089997 0.142402 -0.041928
-0.003435 0.142402 10.239503
0.094779 -0.558754 2.847863
0.028245 -1.234060 -0.980548
0.079630 -1.823753 -11.987639
0.007392 -0.782779 -46.199099
0.079630 -0.548401 -10.467934
0.000111 -0.572419 -7.239746
-0.000000 -0.194568 -0.097782
-0.000125 -0.020681 -0.003538
-0.000011 -0.000015 -0.000000
0.000000 0.000000 0.000000
0.000000 0.000000 0.000000
0.000000 0.000000 0.000000
0.000000 0.000000 0.000000
0.000011 0.000000 0.000000
0.000333 0.000002 0.000429
0.010133 -0.128500 0.664290
0.014233 -0.238648 3.447793
-0.724455 0.749541 4.618393
-0.878251 8.671648 -6.546297
-2.395800 26.641372 -10.906924
-12.089997 31.596637 -4.628997
-12.089997 10.303589 -1.147293
-9.843153 0.537870 0.254259
-0.003435 -0.218135 -0.271801
0.001380 -1.234060 -3.131224
0.072264 -0.602055 -11.352531
-0.001133 -0.026907 -21.214373
-0.003395 -0.058608 -5.955720
-0.015558 -0.838568 -10.467934
-0.000922 -0.572419 -10.903579
-0.000922 -0.001084 -10.903579
-0.000036 0.000695 -0.029025
-0.000000 0.000000 -0.000004
0.000000 0.000000 0.000000
0.000000 0.000000 0.000000
0.000000 0.000000 0.000000
0.000000 0.000000 0.000000
0.000000 0.000087 -0.000190
-0.000203 -0.000756 0.000202
-0.000101 -0.238648 0.664290
0.012408 -0.238648 -0.825511
0.226237 0.749541 -4.628997
0.422868 26.641372 -6.546297
0.385693 31.596637 -0.121949
0.030751 5.171303 0.254259
-4.013470 0.075565 0.717394
-0.293236 -0.459008 1.407010
-0.293236 -4.952868 -3.131224
-0.216900 -4.952868 -11.987639
-0.292251 -0.026907 -98.183373
-0.065796 0.614993 10.297631
0.048319 1.057018 -10.488734
0.396828 -0.073227 -11.786680
0.001763 0.075452 -11.786680
-0.000036 0.002383 -4.742766
-0.000011 0.000077 -0.006448
0.000000 0.000000 0.000000
0.000000 0.000000 0.000000
0.000000 0.000000 0.000000
0.000000 0.000000 -0.000000
-0.000101 0.002739 -0.000688
-0.196139 0.002518 -0.255640
-0.652844 0.000738 -0.825511
-0.033257 -3.687423 -0.850141
0.000255 -0.687263 -0.928563
0.226237 -0.291594 -0.521607
0.058820 -0.417461 -0.042184
-0.004521 0.075565 0.180965
-0.353251 -0.459008 0.301927
-0.353251 -0.328249 3.364564
-0.394071 -4.952868 -3.655075
-0.216900 -5.338601 11.611199
-0.292251 -3.197648 -88.139285
-1.239858 0.004877 24.978444
-0.000673 2.078381 -0.861877
0.777154 1.663999 -5.030355
0.396828 -0.070620 -9.133727
0.000000 0.000036 -5.353088
0.000000 0.000000 -0.029383
0.000000 0.000000 0.000000
0.000000 0.000000 0.000000
0.000000 0.000000 0.000000
0.000000 0.000000 -0.000000
-0.000096 -0.000003 -0.000688
-0.000332 -0.000921 -0.255640
-0.000203 -0.061732 -0.928563
0.000014 -3.191172 -0.825511
0.012803 -2.294708 -0.804331
0.030930 -0.544472 -0.108532
0.003786 -0.475943 -0.074064
-0.000599 -0.328249 -0.042184
-1.305831 -0.451676 0.315947
-0.703189 3.343487 5.075994
-1.436747 -1.047468 4.445415
-0.399774 -5.939495 37.953592
-0.399774 -6.725848 -7.792560
-0.005940 -4.698215 34.606408
0.446232 1.935586 15.378829
4.684718 -3.369154 0.032668
0.777154 -2.583623 -5.030355
0.085303 -0.308494 -5.030355
0.000000 0.000000 -0.029384
0.000000 0.000000 0.000000
0.000000 0.000000 0.000000
0.000000 0.000000 0.000000
0.000000 0.000000 0.000000
0.000000 -0.000000 -0.000000
0.000005 -0.000198 -0.001033
0.000014 -0.001096 -0.008998
0.000231 -0.175464 -0.014099
0.000255 -0.021823 -0.011757
0.000007 -0.190306 -0.008341
-0.001790 -0.392952 -0.002196
-0.021532 -0.392952 -0.074064
-2.029693 3.858636 2.655002
-1.304531 22.804001 5.075994
-1.669389 10.777917 -1.756691
-1.436747 7.932446 -1.756691
-1.436747 0.402144 6.097701
0.076836 -3.970464 24.978444
0.643492 -4.698215 24.978444
11.493730 -9.736668 8.792901
0.738095 -8.077035 -4.453594
0.298172 -0.676105 -4.453594
0.000000 -0.000004 -0.029384
0.000000 0.000000 0.000000
0.000000 0.000000 0.000000
0.000000 0.000000 0.000000
0.000000 0.000000 0.000000
0.000000 -0.000000 0.000000
0.000005 -0.000000 0.000000
0.000005 -0.000070 0.000000
0.000231 -0.000196 -0.006252
0.000576 -0.000021 -0.000795
0.000231 -0.000196 -0.000564
0.000001 -0.005919 1.189226
-2.029693 -0.475943 3.788664
-3.183502 16.862131 14.350310
-2.029693 59.472230 5.075994
-1.803418 27.830819 -1.756691
-1.803418 10.740244 -4.311415
-1.436747 2.482164 1.258842
0.078406 0.015975 12.717556
2.853398 -0.364133 14.222126
9.310229 -8.077035 7.307553
1.757080 -2.583623 -0.173432
0.298172 -0.308494 -0.173432
0.000000 -0.000004 -0.029700
0.000000 0.000000 0.000000
0.000000 0.000000 0.000000
0.000000 0.000000 0.000000
0.000000 0.000000 0.000000
0.000000 0.000000 0.000000
0.000000 0.000000 0.000000
0.000000 0.000000 0.000000
0.000000 0.000000 -0.000052
0.000007 0.000000 -0.000080
0.000007 -0.000079 -0.000080
-2.418453 -0.022452 11.196337
-12.395326 -0.022452 11.648571
-11.629027 1.004036 43.983279
-6.944647 11.269731 -8.429539
-3.689238 11.269731 -5.813522
-2.062019 7.932446 -8.429539
-1.132789 2.451210 0.029538
-0.007191 0.011941 1.258842
0.163781 -0.000158 6.706326
0.408313 -0.341670 0.226545
0.408313 -0.181350 -0.000066
0.179218 -0.000239 -0.029700
0.000000 -0.000010 -0.011102
0.000000 0.000000 0.000000
0.000000 0.000000 0.000000
0.000000 0.000000 0.000000
0.000000 0.000000 0.000000
0.000000 0.000000 0.000000
0.000000 0.000000 0.000000
0.000000 0.000000 0.000000
0.000000 0.000000 0.000000
0.000000 0.000000 -0.000564
-0.122222 -0.000196 -0.000795
-2.556130 -0.022452 12.531086
-12.684024 0.006046 11.648571
-12.395326 0.117364 121.703696
-12.303072 0.929569 -139.407081
-9.718912 5.212163 -70.603829
-1.723436 2.451210 -70.603829
-0.514025 0.055300 0.029538
-0.007191 -0.000031 0.133433
0.078406 -0.000081 0.148261